Title: * rc filter
Date: Fri Jan 15 23:43:05  2021
Plotname: AC Analysis
Flags: complex
No. Variables: 4
No. Points: 165     
Variables:
	0	frequency	frequency	grid=3
	1	v(vin)	voltage
	2	v(vout)	voltage
	3	i(v1)	current
Values:
0		1.000000000000000e+01,-7.674795865342279e+299
	1.000000000000000e+00,0.000000000000000e+00
	9.901180880506223e-01,-9.891541722907737e-02
	-9.881911949377771e-06,-9.891541722907738e-05
1		1.057767560283176e+01,-7.674795865342279e+299
	1.000000000000000e+00,0.000000000000000e+00
	9.889563760988275e-01,-1.045067570652821e-01
	-1.104362390117256e-05,-1.045067570652821e-04
2		1.118872211587422e+01,-7.674795865342279e+299
	1.000000000000000e+00,0.000000000000000e+00
	9.876597960746284e-01,-1.103989279497394e-01
	-1.234020392537160e-05,-1.103989279497394e-04
3		1.183506729519469e+01,-7.674795865342279e+299
	1.000000000000000e+00,0.000000000000000e+00
	9.862131128284580e-01,-1.166053554244457e-01
	-1.378688717154197e-05,-1.166053554244457e-04
4		1.251875025862529e+01,-7.674795865342279e+299
	1.000000000000000e+00,0.000000000000000e+00
	9.845994746381168e-01,-1.231395516495869e-01
	-1.540052536188317e-05,-1.231395516495869e-04
5		1.324192791886044e+01,-7.674795865342279e+299
	1.000000000000000e+00,0.000000000000000e+00
	9.828002675844374e-01,-1.300150053662872e-01
	-1.719973241556252e-05,-1.300150053662872e-04
6		1.400688178817868e+01,-7.674795865342279e+299
	1.000000000000000e+00,0.000000000000000e+00
	9.807949633996051e-01,-1.372450478872460e-01
	-1.920503660039481e-05,-1.372450478872460e-04
7		1.481602517625661e+01,-7.674795865342279e+299
	1.000000000000000e+00,0.000000000000000e+00
	9.785609623727914e-01,-1.448426915409529e-01
	-2.143903762720847e-05,-1.448426915409529e-04
8		1.567191080378307e+01,-7.674795865342279e+299
	1.000000000000000e+00,0.000000000000000e+00
	9.760734335495204e-01,-1.528204366842680e-01
	-2.392656645047969e-05,-1.528204366842680e-04
9		1.657723885589316e+01,-7.674795865342279e+299
	1.000000000000000e+00,0.000000000000000e+00
	9.733051552605665e-01,-1.611900431285107e-01
	-2.669484473943353e-05,-1.611900431285107e-04
10		1.753486550082957e+01,-7.674795865342279e+299
	1.000000000000000e+00,0.000000000000000e+00
	9.702263599828447e-01,-1.699622616267626e-01
	-2.977364001715535e-05,-1.699622616267626e-04
11		1.854781190070612e+01,-7.674795865342279e+299
	1.000000000000000e+00,0.000000000000000e+00
	9.668045886865203e-01,-1.791465209855009e-01
	-3.319541131347966e-05,-1.791465209855009e-04
12		1.961927374280116e+01,-7.674795865342279e+299
	1.000000000000000e+00,0.000000000000000e+00
	9.630045611731126e-01,-1.887505664439007e-01
	-3.699543882688743e-05,-1.887505664439007e-04
13		2.075263132145055e+01,-7.674795865342279e+299
	1.000000000000000e+00,0.000000000000000e+00
	9.587880704648223e-01,-1.987800452740804e-01
	-4.121192953517776e-05,-1.987800452740804e-04
14		2.195146020234697e+01,-7.674795865342279e+299
	1.000000000000000e+00,0.000000000000000e+00
	9.541139110597899e-01,-2.092380361740697e-01
	-4.588608894021010e-05,-2.092380361740697e-04
15		2.321954250288978e+01,-7.674795865342279e+299
	1.000000000000000e+00,0.000000000000000e+00
	9.489378527978545e-01,-2.201245200454778e-01
	-5.106214720214549e-05,-2.201245200454778e-04
16		2.456087882417323e+01,-7.674795865342279e+299
	1.000000000000000e+00,0.000000000000000e+00
	9.432126741379655e-01,-2.314357912758386e-01
	-5.678732586203450e-05,-2.314357912758386e-04
17		2.597970087225643e+01,-7.674795865342279e+299
	1.000000000000000e+00,0.000000000000000e+00
	9.368882707496214e-01,-2.431638107971776e-01
	-6.311172925037853e-05,-2.431638107971777e-04
18		2.748048480853338e+01,-7.674795865342279e+299
	1.000000000000000e+00,0.000000000000000e+00
	9.299118573414100e-01,-2.552955050862803e-01
	-7.008814265858996e-05,-2.552955050862804e-04
19		2.906796537132123e+01,-7.674795865342279e+299
	1.000000000000000e+00,0.000000000000000e+00
	9.222282824120508e-01,-2.678120190196274e-01
	-7.777171758794916e-05,-2.678120190196274e-04
20		3.074715081321829e+01,-7.674795865342279e+299
	1.000000000000000e+00,0.000000000000000e+00
	9.137804768738077e-01,-2.806879351844042e-01
	-8.621952312619233e-05,-2.806879351844042e-04
21		3.252333870135678e+01,-7.674795865342279e+299
	1.000000000000000e+00,0.000000000000000e+00
	9.045100579580326e-01,-2.938904779178616e-01
	-9.548994204196736e-05,-2.938904779178616e-04
22		3.440213263039755e+01,-7.674795865342279e+299
	1.000000000000000e+00,0.000000000000000e+00
	8.943581090938585e-01,-3.073787269671021e-01
	-1.056418909061415e-04,-3.073787269671021e-04
23		3.638945990099384e+01,-7.674795865342279e+299
	1.000000000000000e+00,0.000000000000000e+00
	8.832661541220262e-01,-3.211028730866656e-01
	-1.167338458779737e-04,-3.211028730866656e-04
24		3.849159021949671e+01,-7.674795865342279e+299
	1.000000000000000e+00,0.000000000000000e+00
	8.711773398005824e-01,-3.350035558297300e-01
	-1.288226601994176e-04,-3.350035558297300e-04
25		4.071515547789678e+01,-7.674795865342279e+299
	1.000000000000000e+00,0.000000000000000e+00
	8.580378336193580e-01,-3.490113317603840e-01
	-1.419621663806419e-04,-3.490113317603840e-04
26		4.306717067640506e+01,-7.674795865342279e+299
	1.000000000000000e+00,0.000000000000000e+00
	8.437984340787528e-01,-3.630463286207388e-01
	-1.562015659212473e-04,-3.630463286207388e-04
27		4.555505605468010e+01,-7.674795865342279e+299
	1.000000000000000e+00,0.000000000000000e+00
	8.284163775770186e-01,-3.770181466974621e-01
	-1.715836224229814e-04,-3.770181466974621e-04
28		4.818666050152228e+01,-7.674795865342279e+299
	1.000000000000000e+00,0.000000000000000e+00
	8.118573099268989e-01,-3.908260716036715e-01
	-1.881426900731012e-04,-3.908260716036715e-04
29		5.097028631688890e+01,-7.674795865342279e+299
	1.000000000000000e+00,0.000000000000000e+00
	7.940973717102500e-01,-4.043596616294993e-01
	-2.059026282897501e-04,-4.043596616294993e-04
30		5.391471540435050e+01,-7.674795865342279e+299
	1.000000000000000e+00,0.000000000000000e+00
	7.751253260987634e-01,-4.174997663940055e-01
	-2.248746739012366e-04,-4.174997663940055e-04
31		5.702923697662158e+01,-7.674795865342279e+299
	1.000000000000000e+00,0.000000000000000e+00
	7.549446369171350e-01,-4.301200205840112e-01
	-2.450553630828650e-04,-4.301200205840111e-04
32		6.032367686157209e+01,-7.674795865342279e+299
	1.000000000000000e+00,0.000000000000000e+00
	7.335753856872450e-01,-4.420888363225819e-01
	-2.664246143127550e-04,-4.420888363225820e-04
33		6.380842850117577e+01,-7.674795865342279e+299
	1.000000000000000e+00,0.000000000000000e+00
	7.110559017501603e-01,-4.532718900797033e-01
	-2.889440982498397e-04,-4.532718900797032e-04
34		6.749448574119215e+01,-7.674795865342279e+299
	1.000000000000000e+00,0.000000000000000e+00
	6.874439721726385e-01,-4.635350658754342e-01
	-3.125560278273615e-04,-4.635350658754343e-04
35		7.139347751502841e+01,-7.674795865342279e+299
	1.000000000000000e+00,0.000000000000000e+00
	6.628175007713943e-01,-4.727477778293167e-01
	-3.371824992286057e-04,-4.727477778293167e-04
36		7.551770453120336e+01,-7.674795865342279e+299
	1.000000000000000e+00,0.000000000000000e+00
	6.372745004244856e-01,-4.807865550670151e-01
	-3.627254995755144e-04,-4.807865550670151e-04
37		7.988017808015671e+01,-7.674795865342279e+299
	1.000000000000000e+00,0.000000000000000e+00
	6.109323309706123e-01,-4.875387348154263e-01
	-3.890676690293878e-04,-4.875387348154263e-04
38		8.449466108283298e+01,-7.674795865342279e+299
	1.000000000000000e+00,0.000000000000000e+00
	5.839261359187786e-01,-4.929060800089025e-01
	-4.160738640812214e-04,-4.929060800089025e-04
39		8.937571151054203e+01,-7.674795865342279e+299
	1.000000000000000e+00,0.000000000000000e+00
	5.564064825021933e-01,-4.968081206378674e-01
	-4.435935174978067e-04,-4.968081206378675e-04
40		9.453872831307899e+01,-7.674795865342279e+299
	1.000000000000000e+00,0.000000000000000e+00
	5.285362670126156e-01,-4.991850172681315e-01
	-4.714637329873844e-04,-4.991850172681316e-04
41		9.999999999999956e+01,-7.674795865342279e+299
	1.000000000000000e+00,0.000000000000000e+00
	5.004870050222757e-01,-4.999997628260521e-01
	-4.995129949777243e-04,-4.999997628260521e-04
42		1.057767560283171e+02,-7.674795865342279e+299
	1.000000000000000e+00,0.000000000000000e+00
	4.724346774411673e-01,-4.992395747456601e-01
	-5.275653225588327e-04,-4.992395747456601e-04
43		1.118872211587417e+02,-7.674795865342279e+299
	1.000000000000000e+00,0.000000000000000e+00
	4.445553420052660e-01,-4.969163811949118e-01
	-5.554446579947340e-04,-4.969163811949118e-04
44		1.183506729519463e+02,-7.674795865342279e+299
	1.000000000000000e+00,0.000000000000000e+00
	4.170207407026656e-01,-4.930663672635417e-01
	-5.829792592973344e-04,-4.930663672635417e-04
45		1.251875025862523e+02,-7.674795865342279e+299
	1.000000000000000e+00,0.000000000000000e+00
	3.899941340097058e-01,-4.877486129634049e-01
	-6.100058659902943e-04,-4.877486129634049e-04
46		1.324192791886038e+02,-7.674795865342279e+299
	1.000000000000000e+00,0.000000000000000e+00
	3.636265725783686e-01,-4.810429173091286e-01
	-6.363734274216315e-04,-4.810429173091286e-04
47		1.400688178817862e+02,-7.674795865342279e+299
	1.000000000000000e+00,0.000000000000000e+00
	3.380537789098764e-01,-4.730469548307322e-01
	-6.619462210901237e-04,-4.730469548307322e-04
48		1.481602517625655e+02,-7.674795865342279e+299
	1.000000000000000e+00,0.000000000000000e+00
	3.133937605471111e-01,-4.638729474729595e-01
	-6.866062394528889e-04,-4.638729474729595e-04
49		1.567191080378300e+02,-7.674795865342279e+299
	1.000000000000000e+00,0.000000000000000e+00
	2.897452187549262e-01,-4.536440531557602e-01
	-7.102547812450738e-04,-4.536440531557602e-04
50		1.657723885589308e+02,-7.674795865342279e+299
	1.000000000000000e+00,0.000000000000000e+00
	2.671867591413104e-01,-4.424906720834619e-01
	-7.328132408586897e-04,-4.424906720834619e-04
51		1.753486550082949e+02,-7.674795865342279e+299
	1.000000000000000e+00,0.000000000000000e+00
	2.457768590673707e-01,-4.305468553065375e-01
	-7.542231409326293e-04,-4.305468553065375e-04
52		1.854781190070604e+02,-7.674795865342279e+299
	1.000000000000000e+00,0.000000000000000e+00
	2.255545053605125e-01,-4.179469708851675e-01
	-7.744454946394875e-04,-4.179469708851675e-04
53		1.961927374280108e+02,-7.674795865342279e+299
	1.000000000000000e+00,0.000000000000000e+00
	2.065403872512886e-01,-4.048227460078996e-01
	-7.934596127487114e-04,-4.048227460078996e-04
54		2.075263132145047e+02,-7.674795865342279e+299
	1.000000000000000e+00,0.000000000000000e+00
	1.887385141673533e-01,-3.913007633997832e-01
	-8.112614858326467e-04,-3.913007633997832e-04
55		2.195146020234688e+02,-7.674795865342279e+299
	1.000000000000000e+00,0.000000000000000e+00
	1.721381249997195e-01,-3.775004515511213e-01
	-8.278618750002805e-04,-3.775004515511213e-04
56		2.321954250288969e+02,-7.674795865342279e+299
	1.000000000000000e+00,0.000000000000000e+00
	1.567157625436628e-01,-3.635325739380463e-01
	-8.432842374563373e-04,-3.635325739380463e-04
57		2.456087882417313e+02,-7.674795865342279e+299
	1.000000000000000e+00,0.000000000000000e+00
	1.424374012553137e-01,-3.494981945288795e-01
	-8.575625987446863e-04,-3.494981945288795e-04
58		2.597970087225632e+02,-7.674795865342279e+299
	1.000000000000000e+00,0.000000000000000e+00
	1.292605353958848e-01,-3.354880763679300e-01
	-8.707394646041152e-04,-3.354880763679300e-04
59		2.748048480853327e+02,-7.674795865342279e+299
	1.000000000000000e+00,0.000000000000000e+00
	1.171361554625007e-01,-3.215824568380022e-01
	-8.828638445374993e-04,-3.215824568380023e-04
60		2.906796537132111e+02,-7.674795865342279e+299
	1.000000000000000e+00,0.000000000000000e+00
	1.060105614230505e-01,-3.078511365738644e-01
	-8.939894385769495e-04,-3.078511365738645e-04
61		3.074715081321816e+02,-7.674795865342279e+299
	1.000000000000000e+00,0.000000000000000e+00
	9.582698016461466e-02,-2.943538177723286e-01
	-9.041730198353854e-04,-2.943538177723286e-04
62		3.252333870135664e+02,-7.674795865342279e+299
	1.000000000000000e+00,0.000000000000000e+00
	8.652697079128509e-02,-2.811406304982778e-01
	-9.134730292087149e-04,-2.811406304982778e-04
63		3.440213263039740e+02,-7.674795865342279e+299
	1.000000000000000e+00,0.000000000000000e+00
	7.805161452899165e-02,-2.682527912220288e-01
	-9.219483854710083e-04,-2.682527912220288e-04
64		3.638945990099369e+02,-7.674795865342279e+299
	1.000000000000000e+00,0.000000000000000e+00
	7.034249596298142e-02,-2.557233450912907e-01
	-9.296575040370186e-04,-2.557233450912907e-04
65		3.849159021949655e+02,-7.674795865342279e+299
	1.000000000000000e+00,0.000000000000000e+00
	6.334248936892481e-02,-2.435779514025694e-01
	-9.366575106310752e-04,-2.435779514025694e-04
66		4.071515547789662e+02,-7.674795865342279e+299
	1.000000000000000e+00,0.000000000000000e+00
	5.699636838431949e-02,-2.318356796856740e-01
	-9.430036316156805e-04,-2.318356796856740e-04
67		4.306717067640488e+02,-7.674795865342279e+299
	1.000000000000000e+00,0.000000000000000e+00
	5.125125966001476e-02,-2.205097912639629e-01
	-9.487487403399853e-04,-2.205097912639630e-04
68		4.555505605467993e+02,-7.674795865342279e+299
	1.000000000000000e+00,0.000000000000000e+00
	4.605696189876021e-02,-2.096084878038491e-01
	-9.539430381012398e-04,-2.096084878038491e-04
69		4.818666050152210e+02,-7.674795865342279e+299
	1.000000000000000e+00,0.000000000000000e+00
	4.136615126204890e-02,-1.991356140719540e-01
	-9.586338487379511e-04,-1.991356140719540e-04
70		5.097028631688870e+02,-7.674795865342279e+299
	1.000000000000000e+00,0.000000000000000e+00
	3.713449288442162e-02,-1.890913068404744e-01
	-9.628655071155784e-04,-1.890913068404744e-04
71		5.391471540435030e+02,-7.674795865342279e+299
	1.000000000000000e+00,0.000000000000000e+00
	3.332067648496580e-02,-1.794725856601783e-01
	-9.666793235150342e-04,-1.794725856601783e-04
72		5.702923697662137e+02,-7.674795865342279e+299
	1.000000000000000e+00,0.000000000000000e+00
	2.988639205068209e-02,-1.702738841422108e-01
	-9.701136079493179e-04,-1.702738841422108e-04
73		6.032367686157186e+02,-7.674795865342279e+299
	1.000000000000000e+00,0.000000000000000e+00
	2.679625946560361e-02,-1.614875225652300e-01
	-9.732037405343965e-04,-1.614875225652300e-04
74		6.380842850117552e+02,-7.674795865342279e+299
	1.000000000000000e+00,0.000000000000000e+00
	2.401772389981600e-02,-1.531041241720425e-01
	-9.759822761001840e-04,-1.531041241720425e-04
75		6.749448574119189e+02,-7.674795865342279e+299
	1.000000000000000e+00,0.000000000000000e+00
	2.152092683729370e-02,-1.451129785558740e-01
	-9.784790731627063e-04,-1.451129785558740e-04
76		7.139347751502813e+02,-7.674795865342279e+299
	1.000000000000000e+00,0.000000000000000e+00
	1.927856086038239e-02,-1.375023561672124e-01
	-9.807214391396176e-04,-1.375023561672124e-04
77		7.551770453120307e+02,-7.674795865342279e+299
	1.000000000000000e+00,0.000000000000000e+00
	1.726571474622064e-02,-1.302597782913927e-01
	-9.827342852537794e-04,-1.302597782913927e-04
78		7.988017808015640e+02,-7.674795865342279e+299
	1.000000000000000e+00,0.000000000000000e+00
	1.545971407278660e-02,-1.233722469341232e-01
	-9.845402859272134e-04,-1.233722469341232e-04
79		8.449466108283265e+02,-7.674795865342279e+299
	1.000000000000000e+00,0.000000000000000e+00
	1.383996137378421e-02,-1.168264389723335e-01
	-9.861600386262158e-04,-1.168264389723335e-04
80		8.937571151054169e+02,-7.674795865342279e+299
	1.000000000000000e+00,0.000000000000000e+00
	1.238777890879028e-02,-1.106088687334665e-01
	-9.876122210912097e-04,-1.106088687334665e-04
81		9.453872831307864e+02,-7.674795865342279e+299
	1.000000000000000e+00,0.000000000000000e+00
	1.108625631022301e-02,-1.047060228986234e-01
	-9.889137436897770e-04,-1.047060228986234e-04
82		9.999999999999918e+02,-7.674795865342279e+299
	1.000000000000000e+00,0.000000000000000e+00
	9.920104712140485e-03,-9.910447131507565e-02
	-9.900798952878595e-04,-9.910447131507565e-05
83		1.057767560283167e+03,-7.674795865342279e+299
	1.000000000000000e+00,0.000000000000000e+00
	8.875518437788789e-03,-9.379095697480253e-02
	-9.911244815622112e-04,-9.379095697480252e-05
84		1.118872211587413e+03,-7.674795865342279e+299
	1.000000000000000e+00,0.000000000000000e+00
	7.940044904195099e-03,-8.875246808463674e-02
	-9.920599550958050e-04,-8.875246808463675e-05
85		1.183506729519459e+03,-7.674795865342279e+299
	1.000000000000000e+00,0.000000000000000e+00
	7.102463075430931e-03,-8.397629483189331e-02
	-9.928975369245690e-04,-8.397629483189331e-05
86		1.251875025862518e+03,-7.674795865342279e+299
	1.000000000000000e+00,0.000000000000000e+00
	6.352670545757228e-03,-7.945007314467556e-02
	-9.936473294542428e-04,-7.945007314467556e-05
87		1.324192791886034e+03,-7.674795865342279e+299
	1.000000000000000e+00,0.000000000000000e+00
	5.681579145936720e-03,-7.516181746302557e-02
	-9.943184208540633e-04,-7.516181746302557e-05
88		1.400688178817857e+03,-7.674795865342279e+299
	1.000000000000000e+00,0.000000000000000e+00
	5.081018828693259e-03,-7.109994427814781e-02
	-9.949189811713068e-04,-7.109994427814781e-05
89		1.481602517625649e+03,-7.674795865342279e+299
	1.000000000000000e+00,0.000000000000000e+00
	4.543649492533426e-03,-6.725328796291247e-02
	-9.954563505074666e-04,-6.725328796291247e-05
90		1.567191080378294e+03,-7.674795865342279e+299
	1.000000000000000e+00,0.000000000000000e+00
	4.062880338469875e-03,-6.361111020745630e-02
	-9.959371196615302e-04,-6.361111020745630e-05
91		1.657723885589302e+03,-7.674795865342279e+299
	1.000000000000000e+00,0.000000000000000e+00
	3.632796314589679e-03,-6.016310418791888e-02
	-9.963672036854103e-04,-6.016310418791889e-05
92		1.753486550082943e+03,-7.674795865342279e+299
	1.000000000000000e+00,0.000000000000000e+00
	3.248091183140964e-03,-5.689939443269115e-02
	-9.967519088168592e-04,-5.689939443269115e-05
93		1.854781190070597e+03,-7.674795865342279e+299
	1.000000000000000e+00,0.000000000000000e+00
	2.904006739190669e-03,-5.381053320725789e-02
	-9.970959932608092e-04,-5.381053320725790e-05
94		1.961927374280101e+03,-7.674795865342279e+299
	1.000000000000000e+00,0.000000000000000e+00
	2.596277715168709e-03,-5.088749411392181e-02
	-9.974037222848313e-04,-5.088749411392182e-05
95		2.075263132145039e+03,-7.674795865342279e+299
	1.000000000000000e+00,0.000000000000000e+00
	2.321081918753783e-03,-4.812166349452414e-02
	-9.976789180812463e-04,-4.812166349452414e-05
96		2.195146020234680e+03,-7.674795865342279e+299
	1.000000000000000e+00,0.000000000000000e+00
	2.074995170198906e-03,-4.550483013090541e-02
	-9.979250048298010e-04,-4.550483013090542e-05
97		2.321954250288960e+03,-7.674795865342279e+299
	1.000000000000000e+00,0.000000000000000e+00
	1.854950627482781e-03,-4.302917365755914e-02
	-9.981450493725173e-04,-4.302917365755914e-05
98		2.456087882417304e+03,-7.674795865342279e+299
	1.000000000000000e+00,0.000000000000000e+00
	1.658202112170673e-03,-4.068725203212753e-02
	-9.983417978878294e-04,-4.068725203212753e-05
99		2.597970087225624e+03,-7.674795865342279e+299
	1.000000000000000e+00,0.000000000000000e+00
	1.482291074479639e-03,-3.847198835061891e-02
	-9.985177089255205e-04,-3.847198835061891e-05
100		2.748048480853317e+03,-7.674795865342279e+299
	1.000000000000000e+00,0.000000000000000e+00
	1.325016861944918e-03,-3.637665724417899e-02
	-9.986749831380551e-04,-3.637665724417899e-05
101		2.906796537132101e+03,-7.674795865342279e+299
	1.000000000000000e+00,0.000000000000000e+00
	1.184409981671446e-03,-3.439487105175369e-02
	-9.988155900183286e-04,-3.439487105175368e-05
102		3.074715081321806e+03,-7.674795865342279e+299
	1.000000000000000e+00,0.000000000000000e+00
	1.058708070992033e-03,-3.252056592700148e-02
	-9.989412919290080e-04,-3.252056592700148e-05
103		3.252333870135653e+03,-7.674795865342279e+299
	1.000000000000000e+00,0.000000000000000e+00
	9.463343151414405e-04,-3.074798800743597e-02
	-9.990536656848585e-04,-3.074798800743597e-05
104		3.440213263039729e+03,-7.674795865342279e+299
	1.000000000000000e+00,0.000000000000000e+00
	8.458780730968006e-04,-2.907167974820607e-02
	-9.991541219269032e-04,-2.907167974820607e-05
105		3.638945990099357e+03,-7.674795865342279e+299
	1.000000000000000e+00,0.000000000000000e+00
	7.560774939124220e-04,-2.748646650145524e-02
	-9.992439225060875e-04,-2.748646650145524e-05
106		3.849159021949642e+03,-7.674795865342279e+299
	1.000000000000000e+00,0.000000000000000e+00
	6.758039256344824e-04,-2.598744340424004e-02
	-9.993241960743655e-04,-2.598744340424004e-05
107		4.071515547789648e+03,-7.674795865342279e+299
	1.000000000000000e+00,0.000000000000000e+00
	6.040479372065006e-04,-2.456996262300895e-02
	-9.993959520627935e-04,-2.456996262300895e-05
108		4.306717067640474e+03,-7.674795865342279e+299
	1.000000000000000e+00,0.000000000000000e+00
	5.399067906908331e-04,-2.322962099019695e-02
	-9.994600932093092e-04,-2.322962099019695e-05
109		4.555505605467977e+03,-7.674795865342279e+299
	1.000000000000000e+00,0.000000000000000e+00
	4.825732166790135e-04,-2.196224805819198e-02
	-9.995174267833210e-04,-2.196224805819198e-05
110		4.818666050152194e+03,-7.674795865342279e+299
	1.000000000000000e+00,0.000000000000000e+00
	4.313253600047550e-04,-2.076389458744606e-02
	-9.995686746399953e-04,-2.076389458744606e-05
111		5.097028631688853e+03,-7.674795865342279e+299
	1.000000000000000e+00,0.000000000000000e+00
	3.855177758783390e-04,-1.963082147855308e-02
	-9.996144822241218e-04,-1.963082147855308e-05
112		5.391471540435012e+03,-7.674795865342279e+299
	1.000000000000000e+00,0.000000000000000e+00
	3.445733684063221e-04,-1.855948915245534e-02
	-9.996554266315937e-04,-1.855948915245534e-05
113		5.702923697662118e+03,-7.674795865342279e+299
	1.000000000000000e+00,0.000000000000000e+00
	3.079761742251328e-04,-1.754654737836599e-02
	-9.996920238257748e-04,-1.754654737836599e-05
114		6.032367686157166e+03,-7.674795865342279e+299
	1.000000000000000e+00,0.000000000000000e+00
	2.752649037406218e-04,-1.658882554532992e-02
	-9.997247350962595e-04,-1.658882554532992e-05
115		6.380842850117531e+03,-7.674795865342279e+299
	1.000000000000000e+00,0.000000000000000e+00
	2.460271613059421e-04,-1.568332337044167e-02
	-9.997539728386941e-04,-1.568332337044167e-05
116		6.749448574119167e+03,-7.674795865342279e+299
	1.000000000000000e+00,0.000000000000000e+00
	2.198942736626171e-04,-1.482720203447122e-02
	-9.997801057263374e-04,-1.482720203447122e-05
117		7.139347751502790e+03,-7.674795865342279e+299
	1.000000000000000e+00,0.000000000000000e+00
	1.965366631861302e-04,-1.401777573390850e-02
	-9.998034633368139e-04,-1.401777573390850e-05
118		7.551770453120283e+03,-7.674795865342279e+299
	1.000000000000000e+00,0.000000000000000e+00
	1.756597089856810e-04,-1.325250363713665e-02
	-9.998243402910144e-04,-1.325250363713665e-05
119		7.988017808015614e+03,-7.674795865342279e+299
	1.000000000000000e+00,0.000000000000000e+00
	1.570000447714322e-04,-1.252898223150524e-02
	-9.998429999552286e-04,-1.252898223150524e-05
120		8.449466108283237e+03,-7.674795865342279e+299
	1.000000000000000e+00,0.000000000000000e+00
	1.403222476807493e-04,-1.184493804743423e-02
	-9.998596777523192e-04,-1.184493804743423e-05
121		8.937571151054139e+03,-7.674795865342279e+299
	1.000000000000000e+00,0.000000000000000e+00
	1.254158770023007e-04,-1.119822074528344e-02
	-9.998745841229978e-04,-1.119822074528344e-05
122		9.453872831307832e+03,-7.674795865342279e+299
	1.000000000000000e+00,0.000000000000000e+00
	1.120928260038507e-04,-1.058679655052505e-02
	-9.998879071739962e-04,-1.058679655052505e-05
123		9.999999999999884e+03,-7.674795865342279e+299
	1.000000000000000e+00,0.000000000000000e+00
	1.001849539023650e-04,-1.000874202272077e-02
	-9.998998150460977e-04,-1.000874202272077e-05
124		1.057767560283163e+04,-7.674795865342279e+299
	1.000000000000000e+00,0.000000000000000e+00
	8.954196845595539e-05,-9.462238143898113e-03
	-9.999104580315440e-04,-9.462238143898114e-06
125		1.118872211587409e+04,-7.674795865342279e+299
	1.000000000000000e+00,0.000000000000000e+00
	8.002953274477026e-05,-8.945564712116218e-03
	-9.999199704672553e-04,-8.945564712116217e-06
126		1.183506729519455e+04,-7.674795865342279e+299
	1.000000000000000e+00,0.000000000000000e+00
	7.152757247728095e-05,-8.457095026287482e-03
	-9.999284724275226e-04,-8.457095026287482e-06
127		1.251875025862514e+04,-7.674795865342279e+299
	1.000000000000000e+00,0.000000000000000e+00
	6.392876264135658e-05,-7.995290848659837e-03
	-9.999360712373586e-04,-7.995290848659837e-06
128		1.324192791886029e+04,-7.674795865342279e+299
	1.000000000000000e+00,0.000000000000000e+00
	5.713717454492625e-05,-7.558697631749220e-03
	-9.999428628254552e-04,-7.558697631749221e-06
129		1.400688178817852e+04,-7.674795865342279e+299
	1.000000000000000e+00,0.000000000000000e+00
	5.106706628499995e-05,-7.145939996931195e-03
	-9.999489329337149e-04,-7.145939996931195e-06
130		1.481602517625644e+04,-7.674795865342279e+299
	1.000000000000000e+00,0.000000000000000e+00
	4.564180146994092e-05,-6.755717452343569e-03
	-9.999543581985300e-04,-6.755717452343570e-06
131		1.567191080378288e+04,-7.674795865342279e+299
	1.000000000000000e+00,0.000000000000000e+00
	4.079288261943565e-05,-6.386800338210303e-03
	-9.999592071173807e-04,-6.386800338210304e-06
132		1.657723885589296e+04,-7.674795865342279e+299
	1.000000000000000e+00,0.000000000000000e+00
	3.645908709877033e-05,-6.038025988163536e-03
	-9.999635409129013e-04,-6.038025988163536e-06
133		1.753486550082936e+04,-7.674795865342279e+299
	1.000000000000000e+00,0.000000000000000e+00
	3.258569472606878e-05,-5.708295095610248e-03
	-9.999674143052739e-04,-5.708295095610248e-06
134		1.854781190070590e+04,-7.674795865342279e+299
	1.000000000000000e+00,0.000000000000000e+00
	2.912379733861163e-05,-5.396568274657535e-03
	-9.999708762026614e-04,-5.396568274657536e-06
135		1.961927374280093e+04,-7.674795865342279e+299
	1.000000000000000e+00,0.000000000000000e+00
	2.602968163121581e-05,-5.101862805573077e-03
	-9.999739703183688e-04,-5.101862805573078e-06
136		2.075263132145032e+04,-7.674795865342279e+299
	1.000000000000000e+00,0.000000000000000e+00
	2.326427749845399e-05,-4.823249555211348e-03
	-9.999767357225017e-04,-4.823249555211348e-06
137		2.195146020234672e+04,-7.674795865342279e+299
	1.000000000000000e+00,0.000000000000000e+00
	2.079266493451075e-05,-4.559850063280114e-03
	-9.999792073350656e-04,-4.559850063280115e-06
138		2.321954250288952e+04,-7.674795865342279e+299
	1.000000000000000e+00,0.000000000000000e+00
	1.858363327981912e-05,-4.310833785753429e-03
	-9.999814163667202e-04,-4.310833785753429e-06
139		2.456087882417295e+04,-7.674795865342279e+299
	1.000000000000000e+00,0.000000000000000e+00
	1.660928726137314e-05,-4.075415487155856e-03
	-9.999833907127387e-04,-4.075415487155857e-06
140		2.597970087225613e+04,-7.674795865342279e+299
	1.000000000000000e+00,0.000000000000000e+00
	1.484469486190671e-05,-3.852852773847084e-03
	-9.999851553051382e-04,-3.852852773847084e-06
141		2.748048480853306e+04,-7.674795865342279e+299
	1.000000000000000e+00,0.000000000000000e+00
	1.326757257926003e-05,-3.642443760825675e-03
	-9.999867324274208e-04,-3.642443760825675e-06
142		2.906796537132089e+04,-7.674795865342279e+299
	1.000000000000000e+00,0.000000000000000e+00
	1.185800410775821e-05,-3.443524864945335e-03
	-9.999881419958923e-04,-3.443524864945335e-06
143		3.074715081321794e+04,-7.674795865342279e+299
	1.000000000000000e+00,0.000000000000000e+00
	1.059818889415936e-05,-3.255468717796490e-03
	-9.999894018111058e-04,-3.255468717796490e-06
144		3.252333870135640e+04,-7.674795865342279e+299
	1.000000000000000e+00,0.000000000000000e+00
	9.472217396934046e-06,-3.077682191850165e-03
	-9.999905277826031e-04,-3.077682191850165e-06
145		3.440213263039715e+04,-7.674795865342279e+299
	1.000000000000000e+00,0.000000000000000e+00
	8.465870214011950e-06,-2.909604533790369e-03
	-9.999915341297860e-04,-2.909604533790369e-06
146		3.638945990099342e+04,-7.674795865342279e+299
	1.000000000000000e+00,0.000000000000000e+00
	7.566438544878206e-06,-2.750705599275566e-03
	-9.999924335614551e-04,-2.750705599275566e-06
147		3.849159021949627e+04,-7.674795865342279e+299
	1.000000000000000e+00,0.000000000000000e+00
	6.762563721784308e-06,-2.600484183669690e-03
	-9.999932374362783e-04,-2.600484183669690e-06
148		4.071515547789632e+04,-7.674795865342279e+299
	1.000000000000000e+00,0.000000000000000e+00
	6.044093785224467e-06,-2.458466443568995e-03
	-9.999939559062149e-04,-2.458466443568995e-06
149		4.306717067640457e+04,-7.674795865342279e+299
	1.000000000000000e+00,0.000000000000000e+00
	5.401955293731007e-06,-2.324204404223091e-03
	-9.999945980447063e-04,-2.324204404223091e-06
150		4.555505605467959e+04,-7.674795865342279e+299
	1.000000000000000e+00,0.000000000000000e+00
	4.828038750158190e-06,-2.197274548207396e-03
	-9.999951719612498e-04,-2.197274548207396e-06
151		4.818666050152174e+04,-7.674795865342279e+299
	1.000000000000000e+00,0.000000000000000e+00
	4.315096198364587e-06,-2.077276480950330e-03
	-9.999956849038017e-04,-2.077276480950330e-06
152		5.097028631688833e+04,-7.674795865342279e+299
	1.000000000000000e+00,0.000000000000000e+00
	3.856649697727094e-06,-1.963831668952358e-03
	-9.999961433503023e-04,-1.963831668952358e-06
153		5.391471540434990e+04,-7.674795865342279e+299
	1.000000000000000e+00,0.000000000000000e+00
	3.446909520154961e-06,-1.856582246756044e-03
	-9.999965530904798e-04,-1.856582246756044e-06
154		5.702923697662095e+04,-7.674795865342279e+299
	1.000000000000000e+00,0.000000000000000e+00
	3.080701036945449e-06,-1.755189888936969e-03
	-9.999969192989631e-04,-1.755189888936969e-06
155		6.032367686157142e+04,-7.674795865342279e+299
	1.000000000000000e+00,0.000000000000000e+00
	2.753399372477333e-06,-1.659334743585281e-03
	-9.999972466006276e-04,-1.659334743585281e-06
156		6.380842850117506e+04,-7.674795865342279e+299
	1.000000000000000e+00,0.000000000000000e+00
	2.460870999754787e-06,-1.568714423937228e-03
	-9.999975391290002e-04,-1.568714423937228e-06
157		6.749448574119140e+04,-7.674795865342279e+299
	1.000000000000000e+00,0.000000000000000e+00
	2.199421540426277e-06,-1.483043054995763e-03
	-9.999978005784595e-04,-1.483043054995763e-06